<?xml version="1.0" encoding="UTF-8"?>

<!-- generated on Tue Sep 24 00:21:44 2019 by Eclipse SUMO GUI Version 1.2.0
<configuration xmlns:xsi="http://www.w3.org/2001/XMLSchema-instance" xsi:noNamespaceSchemaLocation="http://sumo.dlr.de/xsd/sumoConfiguration.xsd">

    <input>
        <net-file value="dayuan.cross.net.xml"/>
        <route-files value="dayuan.cross.rou.xml"/>
        <additional-files value="dayuan.cross.det.xml"/>
    </input>

    <time>
        <begin value="0"/>
    </time>

    <report>
        <verbose value="true"/>
        <no-step-log value="true"/>
    </report>

    <gui_only>
        <gui-settings-file value="dayuan.cross.settings.xml"/>
    </gui_only>

</configuration>
-->

<detector xmlns:xsi="http://www.w3.org/2001/XMLSchema-instance" xsi:noNamespaceSchemaLocation="http://sumo.dlr.de/xsd/det_e1_file.xsd">
</detector>
