<?xml version="1.0" encoding="UTF-8"?>

<!-- generated on Fri Feb 19 01:56:37 2021 by Eclipse SUMO GUI Version 1.3.1
<configuration xmlns:xsi="http://www.w3.org/2001/XMLSchema-instance" xsi:noNamespaceSchemaLocation="http://sumo.dlr.de/xsd/sumoConfiguration.xsd">

    <input>
        <net-file value="reschedule.net.xml"/>
        <route-files value="reschedule.rou.xml"/>
    </input>

    <output>
        <tripinfo-output value="output/tripinfo.xml"/>
    </output>

    <time>
        <begin value="0"/>
        <end value="300"/>
    </time>

    <traci_server>
        <remote-port value="60596"/>
    </traci_server>

    <gui_only>
        <gui-settings-file value="dayuan.view.settings.xml"/>
    </gui_only>

</configuration>
-->

<tripinfos xmlns:xsi="http://www.w3.org/2001/XMLSchema-instance" xsi:noNamespaceSchemaLocation="http://sumo.dlr.de/xsd/tripinfo_file.xsd">
    <tripinfo id="0" depart="0.00" departLane="btoc_0" departPos="5.10" departSpeed="0.00" departDelay="0.00" arrival="20.00" arrivalLane="ctol_1" arrivalPos="89.60" arrivalSpeed="11.25" duration="20.00" routeLength="193.46" waitingTime="0.00" waitingCount="0" stopTime="0.00" timeLoss="5.95" rerouteNo="0" devices="tripinfo_0" vType="DEFAULT_VEHTYPE" speedFactor="1.06" vaporized=""/>
    <tripinfo id="4" depart="4.00" departLane="btoc_0" departPos="5.10" departSpeed="0.00" departDelay="0.00" arrival="23.00" arrivalLane="ctol_1" arrivalPos="89.60" arrivalSpeed="13.83" duration="19.00" routeLength="193.46" waitingTime="0.00" waitingCount="0" stopTime="0.00" timeLoss="4.50" rerouteNo="0" devices="tripinfo_4" vType="DEFAULT_VEHTYPE" speedFactor="1.03" vaporized=""/>
    <tripinfo id="6" depart="6.00" departLane="btoc_0" departPos="5.10" departSpeed="0.00" departDelay="0.00" arrival="25.00" arrivalLane="ctor_0" arrivalPos="89.60" arrivalSpeed="14.24" duration="19.00" routeLength="183.13" waitingTime="0.00" waitingCount="0" stopTime="0.00" timeLoss="5.33" rerouteNo="0" devices="tripinfo_6" vType="DEFAULT_VEHTYPE" speedFactor="1.05" vaporized=""/>
    <tripinfo id="8" depart="9.00" departLane="btoc_0" departPos="5.10" departSpeed="0.00" departDelay="1.00" arrival="29.00" arrivalLane="ctor_0" arrivalPos="89.60" arrivalSpeed="12.64" duration="20.00" routeLength="183.13" waitingTime="0.00" waitingCount="0" stopTime="0.00" timeLoss="5.19" rerouteNo="0" devices="tripinfo_8" vType="DEFAULT_VEHTYPE" speedFactor="0.94" vaporized=""/>
    <tripinfo id="7" depart="7.00" departLane="ltoc_0" departPos="5.10" departSpeed="0.00" departDelay="0.00" arrival="30.00" arrivalLane="ctol_1" arrivalPos="89.60" arrivalSpeed="9.20" duration="23.00" routeLength="178.77" waitingTime="0.00" waitingCount="0" stopTime="0.00" timeLoss="6.95" rerouteNo="0" devices="tripinfo_7" vType="DEFAULT_VEHTYPE" speedFactor="0.89" vaporized=""/>
    <tripinfo id="10" depart="14.00" departLane="btoc_0" departPos="5.10" departSpeed="0.00" departDelay="4.00" arrival="31.00" arrivalLane="ctot_0" arrivalPos="89.60" arrivalSpeed="14.81" duration="17.00" routeLength="194.90" waitingTime="0.00" waitingCount="0" stopTime="0.00" timeLoss="4.14" rerouteNo="0" devices="tripinfo_10" vType="DEFAULT_VEHTYPE" speedFactor="1.09" vaporized=""/>
    <tripinfo id="13" depart="17.00" departLane="btoc_0" departPos="5.10" departSpeed="0.00" departDelay="4.00" arrival="34.00" arrivalLane="ctot_0" arrivalPos="89.60" arrivalSpeed="14.39" duration="17.00" routeLength="194.90" waitingTime="0.00" waitingCount="0" stopTime="0.00" timeLoss="4.13" rerouteNo="0" devices="tripinfo_13" vType="DEFAULT_VEHTYPE" speedFactor="1.12" vaporized=""/>
    <tripinfo id="14" depart="14.00" departLane="ltoc_0" departPos="5.10" departSpeed="0.00" departDelay="0.00" arrival="35.00" arrivalLane="ctol_1" arrivalPos="89.60" arrivalSpeed="13.18" duration="21.00" routeLength="178.77" waitingTime="0.00" waitingCount="0" stopTime="0.00" timeLoss="6.69" rerouteNo="0" devices="tripinfo_14" vType="DEFAULT_VEHTYPE" speedFactor="0.99" vaporized=""/>
    <tripinfo id="17" depart="17.00" departLane="totoc_0" departPos="5.10" departSpeed="0.00" departDelay="0.00" arrival="37.00" arrivalLane="ctol_0" arrivalPos="89.60" arrivalSpeed="12.71" duration="20.00" routeLength="183.13" waitingTime="0.00" waitingCount="0" stopTime="0.00" timeLoss="5.18" rerouteNo="0" devices="tripinfo_17" vType="DEFAULT_VEHTYPE" speedFactor="0.94" vaporized=""/>
    <tripinfo id="1" depart="1.00" departLane="totoc_0" departPos="5.10" departSpeed="0.00" departDelay="0.00" arrival="40.00" arrivalLane="ctor_1" arrivalPos="89.60" arrivalSpeed="12.56" duration="39.00" routeLength="193.46" waitingTime="13.00" waitingCount="1" stopTime="0.00" timeLoss="22.63" rerouteNo="0" devices="tripinfo_1" vType="DEFAULT_VEHTYPE" speedFactor="0.94" vaporized=""/>
    <tripinfo id="22" depart="22.00" departLane="totoc_0" departPos="5.10" departSpeed="0.00" departDelay="0.00" arrival="40.00" arrivalLane="ctob_0" arrivalPos="89.60" arrivalSpeed="12.69" duration="18.00" routeLength="194.90" waitingTime="0.00" waitingCount="0" stopTime="0.00" timeLoss="3.22" rerouteNo="0" devices="tripinfo_22" vType="DEFAULT_VEHTYPE" speedFactor="0.98" vaporized=""/>
    <tripinfo id="23" depart="23.00" departLane="btoc_0" departPos="5.10" departSpeed="0.00" departDelay="0.00" arrival="44.00" arrivalLane="ctor_0" arrivalPos="89.60" arrivalSpeed="11.17" duration="21.00" routeLength="183.13" waitingTime="0.00" waitingCount="0" stopTime="0.00" timeLoss="5.33" rerouteNo="0" devices="tripinfo_23" vType="DEFAULT_VEHTYPE" speedFactor="0.89" vaporized=""/>
    <tripinfo id="27" depart="28.00" departLane="btoc_0" departPos="5.10" departSpeed="0.00" departDelay="1.00" arrival="49.00" arrivalLane="ctor_0" arrivalPos="89.60" arrivalSpeed="11.90" duration="21.00" routeLength="183.13" waitingTime="0.00" waitingCount="0" stopTime="0.00" timeLoss="5.82" rerouteNo="0" devices="tripinfo_27" vType="DEFAULT_VEHTYPE" speedFactor="0.95" vaporized=""/>
    <tripinfo id="28" depart="31.00" departLane="btoc_0" departPos="5.10" departSpeed="0.00" departDelay="3.00" arrival="50.00" arrivalLane="ctor_0" arrivalPos="89.60" arrivalSpeed="14.06" duration="19.00" routeLength="183.13" waitingTime="0.00" waitingCount="0" stopTime="0.00" timeLoss="6.77" rerouteNo="0" devices="tripinfo_28" vType="DEFAULT_VEHTYPE" speedFactor="1.13" vaporized=""/>
    <tripinfo id="30" depart="34.00" departLane="btoc_0" departPos="5.10" departSpeed="0.00" departDelay="4.00" arrival="51.00" arrivalLane="ctot_0" arrivalPos="89.60" arrivalSpeed="15.34" duration="17.00" routeLength="194.90" waitingTime="0.00" waitingCount="0" stopTime="0.00" timeLoss="4.88" rerouteNo="0" devices="tripinfo_30" vType="DEFAULT_VEHTYPE" speedFactor="1.18" vaporized=""/>
    <tripinfo id="20" depart="22.00" departLane="ctot_0" departPos="5.10" departSpeed="0.00" departDelay="2.00" arrival="52.00" arrivalLane="ctol_0" arrivalPos="89.60" arrivalSpeed="13.88" duration="30.00" routeLength="277.40" waitingTime="0.00" waitingCount="0" stopTime="0.00" timeLoss="8.74" rerouteNo="0" devices="tripinfo_20" vType="DEFAULT_VEHTYPE" speedFactor="1.02" vaporized=""/>
    <tripinfo id="31" depart="37.00" departLane="btoc_0" departPos="5.10" departSpeed="0.00" departDelay="6.00" arrival="56.00" arrivalLane="ctor_0" arrivalPos="89.60" arrivalSpeed="14.81" duration="19.00" routeLength="183.13" waitingTime="0.00" waitingCount="0" stopTime="0.00" timeLoss="6.32" rerouteNo="0" devices="tripinfo_31" vType="DEFAULT_VEHTYPE" speedFactor="1.15" vaporized=""/>
    <tripinfo id="39" depart="40.00" departLane="totoc_0" departPos="5.10" departSpeed="0.00" departDelay="1.00" arrival="59.00" arrivalLane="ctob_0" arrivalPos="89.60" arrivalSpeed="11.71" duration="19.00" routeLength="194.90" waitingTime="0.00" waitingCount="0" stopTime="0.00" timeLoss="3.42" rerouteNo="0" devices="tripinfo_39" vType="DEFAULT_VEHTYPE" speedFactor="0.90" vaporized=""/>
    <tripinfo id="5" depart="5.00" departLane="totoc_0" departPos="5.10" departSpeed="0.00" departDelay="0.00" arrival="60.00" arrivalLane="ctor_1" arrivalPos="89.60" arrivalSpeed="11.23" duration="55.00" routeLength="193.46" waitingTime="28.00" waitingCount="2" stopTime="0.00" timeLoss="36.92" rerouteNo="0" devices="tripinfo_5" vType="DEFAULT_VEHTYPE" speedFactor="0.83" vaporized=""/>
    <tripinfo id="12" depart="12.00" departLane="rtoc_0" departPos="5.10" departSpeed="0.00" departDelay="0.00" arrival="62.00" arrivalLane="ctol_0" arrivalPos="89.60" arrivalSpeed="14.00" duration="50.00" routeLength="194.90" waitingTime="28.00" waitingCount="1" stopTime="0.00" timeLoss="36.47" rerouteNo="0" devices="tripinfo_12" vType="DEFAULT_VEHTYPE" speedFactor="1.05" vaporized=""/>
    <tripinfo id="34" depart="42.00" departLane="btoc_0" departPos="5.10" departSpeed="0.00" departDelay="8.00" arrival="62.00" arrivalLane="ctor_0" arrivalPos="89.60" arrivalSpeed="13.00" duration="20.00" routeLength="183.13" waitingTime="0.00" waitingCount="0" stopTime="0.00" timeLoss="5.83" rerouteNo="0" devices="tripinfo_34" vType="DEFAULT_VEHTYPE" speedFactor="0.99" vaporized=""/>
    <tripinfo id="35" depart="45.00" departLane="btoc_0" departPos="5.10" departSpeed="0.00" departDelay="10.00" arrival="64.00" arrivalLane="ctot_0" arrivalPos="89.60" arrivalSpeed="13.02" duration="19.00" routeLength="194.90" waitingTime="0.00" waitingCount="0" stopTime="0.00" timeLoss="4.33" rerouteNo="0" devices="tripinfo_35" vType="DEFAULT_VEHTYPE" speedFactor="1.02" vaporized=""/>
    <tripinfo id="40" depart="48.00" departLane="btoc_0" departPos="5.10" departSpeed="0.00" departDelay="8.00" arrival="65.00" arrivalLane="ctot_0" arrivalPos="89.60" arrivalSpeed="13.97" duration="17.00" routeLength="194.90" waitingTime="0.00" waitingCount="0" stopTime="0.00" timeLoss="3.15" rerouteNo="0" devices="tripinfo_40" vType="DEFAULT_VEHTYPE" speedFactor="1.03" vaporized=""/>
    <tripinfo id="44" depart="45.00" departLane="totoc_0" departPos="5.10" departSpeed="0.00" departDelay="1.00" arrival="66.00" arrivalLane="ctob_0" arrivalPos="89.60" arrivalSpeed="13.92" duration="21.00" routeLength="194.90" waitingTime="0.00" waitingCount="0" stopTime="0.00" timeLoss="7.44" rerouteNo="0" devices="tripinfo_44" vType="DEFAULT_VEHTYPE" speedFactor="1.04" vaporized=""/>
    <tripinfo id="2" depart="2.00" departLane="ltoc_0" departPos="5.10" departSpeed="0.00" departDelay="0.00" arrival="70.00" arrivalLane="ctor_0" arrivalPos="89.60" arrivalSpeed="13.45" duration="68.00" routeLength="194.90" waitingTime="45.00" waitingCount="1" stopTime="0.00" timeLoss="54.12" rerouteNo="0" devices="tripinfo_2" vType="DEFAULT_VEHTYPE" speedFactor="1.01" vaporized=""/>
    <tripinfo id="53" depart="53.00" departLane="totoc_0" departPos="5.10" departSpeed="0.00" departDelay="0.00" arrival="70.00" arrivalLane="ctob_0" arrivalPos="89.60" arrivalSpeed="14.11" duration="17.00" routeLength="194.90" waitingTime="0.00" waitingCount="0" stopTime="0.00" timeLoss="4.03" rerouteNo="0" devices="tripinfo_53" vType="DEFAULT_VEHTYPE" speedFactor="1.10" vaporized=""/>
    <tripinfo id="46" depart="53.00" departLane="btoc_0" departPos="5.10" departSpeed="0.00" departDelay="7.00" arrival="73.00" arrivalLane="ctor_0" arrivalPos="89.60" arrivalSpeed="13.79" duration="20.00" routeLength="183.13" waitingTime="0.00" waitingCount="0" stopTime="0.00" timeLoss="5.84" rerouteNo="0" devices="tripinfo_46" vType="DEFAULT_VEHTYPE" speedFactor="1.00" vaporized=""/>
    <tripinfo id="3" depart="3.00" departLane="rtoc_0" departPos="5.10" departSpeed="0.00" departDelay="0.00" arrival="75.00" arrivalLane="ctob_1" arrivalPos="89.60" arrivalSpeed="13.95" duration="72.00" routeLength="193.45" waitingTime="48.00" waitingCount="1" stopTime="0.00" timeLoss="57.97" rerouteNo="0" devices="tripinfo_3" vType="DEFAULT_VEHTYPE" speedFactor="1.08" vaporized=""/>
    <tripinfo id="18" depart="21.00" departLane="ltoc_0" departPos="5.10" departSpeed="0.00" departDelay="3.00" arrival="75.00" arrivalLane="ctob_0" arrivalPos="89.60" arrivalSpeed="12.21" duration="54.00" routeLength="183.13" waitingTime="28.00" waitingCount="1" stopTime="0.00" timeLoss="38.98" rerouteNo="0" devices="tripinfo_18" vType="DEFAULT_VEHTYPE" speedFactor="0.94" vaporized=""/>
    <tripinfo id="49" depart="56.00" departLane="btoc_0" departPos="5.10" departSpeed="0.00" departDelay="7.00" arrival="77.00" arrivalLane="ctot_0" arrivalPos="89.60" arrivalSpeed="10.94" duration="21.00" routeLength="194.90" waitingTime="0.00" waitingCount="0" stopTime="0.00" timeLoss="4.45" rerouteNo="0" devices="tripinfo_49" vType="DEFAULT_VEHTYPE" speedFactor="0.85" vaporized=""/>
    <tripinfo id="51" depart="59.00" departLane="btoc_0" departPos="5.10" departSpeed="0.00" departDelay="8.00" arrival="78.00" arrivalLane="ctor_0" arrivalPos="89.60" arrivalSpeed="16.08" duration="19.00" routeLength="183.13" waitingTime="0.00" waitingCount="0" stopTime="0.00" timeLoss="6.94" rerouteNo="0" devices="tripinfo_51" vType="DEFAULT_VEHTYPE" speedFactor="1.17" vaporized=""/>
    <tripinfo id="19" depart="19.00" departLane="rtoc_0" departPos="5.10" departSpeed="0.00" departDelay="0.00" arrival="80.00" arrivalLane="ctob_1" arrivalPos="89.60" arrivalSpeed="14.94" duration="61.00" routeLength="193.45" waitingTime="35.00" waitingCount="1" stopTime="0.00" timeLoss="47.91" rerouteNo="0" devices="tripinfo_19" vType="DEFAULT_VEHTYPE" speedFactor="1.16" vaporized=""/>
    <tripinfo id="38" depart="38.00" departLane="rtoc_0" departPos="5.10" departSpeed="0.00" departDelay="0.00" arrival="81.00" arrivalLane="ctol_0" arrivalPos="89.60" arrivalSpeed="15.30" duration="43.00" routeLength="194.90" waitingTime="16.00" waitingCount="2" stopTime="0.00" timeLoss="29.67" rerouteNo="0" devices="tripinfo_38" vType="DEFAULT_VEHTYPE" speedFactor="1.10" vaporized=""/>
    <tripinfo id="52" depart="52.00" departLane="rtoc_0" departPos="5.10" departSpeed="0.00" departDelay="0.00" arrival="83.00" arrivalLane="ctol_0" arrivalPos="89.60" arrivalSpeed="12.96" duration="31.00" routeLength="194.90" waitingTime="7.00" waitingCount="1" stopTime="0.00" timeLoss="16.64" rerouteNo="0" devices="tripinfo_52" vType="DEFAULT_VEHTYPE" speedFactor="1.02" vaporized=""/>
    <tripinfo id="59" depart="64.00" departLane="btoc_0" departPos="5.10" departSpeed="0.00" departDelay="5.00" arrival="84.00" arrivalLane="ctor_0" arrivalPos="89.60" arrivalSpeed="12.37" duration="20.00" routeLength="183.13" waitingTime="0.00" waitingCount="0" stopTime="0.00" timeLoss="5.67" rerouteNo="0" devices="tripinfo_59" vType="DEFAULT_VEHTYPE" speedFactor="0.97" vaporized=""/>
    <tripinfo id="9" depart="12.00" departLane="btoc_0" departPos="5.10" departSpeed="0.00" departDelay="3.00" arrival="86.00" arrivalLane="ctob_1" arrivalPos="89.60" arrivalSpeed="11.57" duration="74.00" routeLength="178.78" waitingTime="48.00" waitingCount="1" stopTime="0.00" timeLoss="57.16" rerouteNo="0" devices="tripinfo_9" vType="DEFAULT_VEHTYPE" speedFactor="0.86" vaporized=""/>
    <tripinfo id="25" depart="26.00" departLane="btoc_0" departPos="5.10" departSpeed="0.00" departDelay="1.00" arrival="89.00" arrivalLane="ctol_1" arrivalPos="89.60" arrivalSpeed="11.81" duration="63.00" routeLength="193.46" waitingTime="37.00" waitingCount="1" stopTime="0.00" timeLoss="45.87" rerouteNo="0" devices="tripinfo_25" vType="DEFAULT_VEHTYPE" speedFactor="0.87" vaporized=""/>
    <tripinfo id="69" depart="69.00" departLane="btoc_0" departPos="5.10" departSpeed="0.00" departDelay="0.00" arrival="89.00" arrivalLane="ctor_0" arrivalPos="89.60" arrivalSpeed="13.69" duration="20.00" routeLength="183.13" waitingTime="0.00" waitingCount="0" stopTime="0.00" timeLoss="5.95" rerouteNo="0" devices="tripinfo_69" vType="DEFAULT_VEHTYPE" speedFactor="1.02" vaporized=""/>
    <tripinfo id="32" depart="40.00" departLane="btoc_0" departPos="5.10" departSpeed="0.00" departDelay="8.00" arrival="92.00" arrivalLane="ctob_1" arrivalPos="89.60" arrivalSpeed="13.68" duration="52.00" routeLength="178.78" waitingTime="26.00" waitingCount="1" stopTime="0.00" timeLoss="37.65" rerouteNo="0" devices="tripinfo_32" vType="DEFAULT_VEHTYPE" speedFactor="1.01" vaporized=""/>
    <tripinfo id="76" depart="76.00" departLane="totoc_0" departPos="5.10" departSpeed="0.00" departDelay="0.00" arrival="93.00" arrivalLane="ctob_0" arrivalPos="89.60" arrivalSpeed="14.14" duration="17.00" routeLength="194.90" waitingTime="0.00" waitingCount="0" stopTime="0.00" timeLoss="3.33" rerouteNo="0" devices="tripinfo_76" vType="DEFAULT_VEHTYPE" speedFactor="1.03" vaporized=""/>
    <tripinfo id="45" depart="51.00" departLane="btoc_0" departPos="5.10" departSpeed="0.00" departDelay="6.00" arrival="98.00" arrivalLane="ctol_1" arrivalPos="89.60" arrivalSpeed="14.01" duration="47.00" routeLength="193.46" waitingTime="16.00" waitingCount="2" stopTime="0.00" timeLoss="33.10" rerouteNo="0" devices="tripinfo_45" vType="DEFAULT_VEHTYPE" speedFactor="1.09" vaporized=""/>
    <tripinfo id="54" depart="62.00" departLane="btoc_0" departPos="5.10" departSpeed="0.00" departDelay="8.00" arrival="99.00" arrivalLane="ctob_1" arrivalPos="89.60" arrivalSpeed="12.64" duration="37.00" routeLength="178.78" waitingTime="7.00" waitingCount="1" stopTime="0.00" timeLoss="23.21" rerouteNo="0" devices="tripinfo_54" vType="DEFAULT_VEHTYPE" speedFactor="1.00" vaporized=""/>
    <tripinfo id="56" depart="56.00" departLane="rtoc_0" departPos="5.10" departSpeed="0.00" departDelay="0.00" arrival="101.00" arrivalLane="ctol_0" arrivalPos="89.60" arrivalSpeed="11.87" duration="45.00" routeLength="194.90" waitingTime="15.00" waitingCount="2" stopTime="0.00" timeLoss="28.74" rerouteNo="0" devices="tripinfo_56" vType="DEFAULT_VEHTYPE" speedFactor="0.90" vaporized=""/>
    <tripinfo id="24" depart="24.00" departLane="rtoc_0" departPos="5.10" departSpeed="0.00" departDelay="0.00" arrival="102.00" arrivalLane="ctor_1" arrivalPos="89.60" arrivalSpeed="10.53" duration="78.00" routeLength="178.77" waitingTime="46.00" waitingCount="2" stopTime="0.00" timeLoss="61.38" rerouteNo="0" devices="tripinfo_24" vType="DEFAULT_VEHTYPE" speedFactor="0.83" vaporized=""/>
    <tripinfo id="84" depart="84.00" departLane="btoc_0" departPos="5.10" departSpeed="0.00" departDelay="0.00" arrival="102.00" arrivalLane="ctor_0" arrivalPos="89.60" arrivalSpeed="14.76" duration="18.00" routeLength="183.13" waitingTime="0.00" waitingCount="0" stopTime="0.00" timeLoss="5.50" rerouteNo="0" devices="tripinfo_84" vType="DEFAULT_VEHTYPE" speedFactor="1.15" vaporized=""/>
    <tripinfo id="83" depart="83.00" departLane="totoc_0" departPos="5.10" departSpeed="0.00" departDelay="0.00" arrival="103.00" arrivalLane="ctob_0" arrivalPos="89.60" arrivalSpeed="12.94" duration="20.00" routeLength="194.90" waitingTime="0.00" waitingCount="0" stopTime="0.00" timeLoss="4.87" rerouteNo="0" devices="tripinfo_83" vType="DEFAULT_VEHTYPE" speedFactor="0.97" vaporized=""/>
    <tripinfo id="86" depart="87.00" departLane="totoc_0" departPos="5.10" departSpeed="0.00" departDelay="1.00" arrival="105.00" arrivalLane="ctob_0" arrivalPos="89.60" arrivalSpeed="13.70" duration="18.00" routeLength="194.90" waitingTime="0.00" waitingCount="0" stopTime="0.00" timeLoss="3.55" rerouteNo="0" devices="tripinfo_86" vType="DEFAULT_VEHTYPE" speedFactor="1.00" vaporized=""/>
    <tripinfo id="90" depart="90.00" departLane="btoc_0" departPos="5.10" departSpeed="0.00" departDelay="0.00" arrival="109.00" arrivalLane="ctor_0" arrivalPos="89.60" arrivalSpeed="13.47" duration="19.00" routeLength="183.13" waitingTime="0.00" waitingCount="0" stopTime="0.00" timeLoss="4.79" rerouteNo="0" devices="tripinfo_90" vType="DEFAULT_VEHTYPE" speedFactor="1.02" vaporized=""/>
    <tripinfo id="77" depart="77.00" departLane="ctob_0" departPos="5.10" departSpeed="0.00" departDelay="0.00" arrival="112.00" arrivalLane="ctot_0" arrivalPos="89.60" arrivalSpeed="13.63" duration="35.00" routeLength="289.17" waitingTime="0.00" waitingCount="0" stopTime="0.00" timeLoss="12.71" rerouteNo="0" devices="tripinfo_77" vType="DEFAULT_VEHTYPE" speedFactor="0.98" vaporized=""/>
    <tripinfo id="95" depart="95.00" departLane="totoc_0" departPos="5.10" departSpeed="0.00" departDelay="0.00" arrival="113.00" arrivalLane="ctob_0" arrivalPos="89.60" arrivalSpeed="14.45" duration="18.00" routeLength="194.90" waitingTime="0.00" waitingCount="0" stopTime="0.00" timeLoss="4.08" rerouteNo="0" devices="tripinfo_95" vType="DEFAULT_VEHTYPE" speedFactor="1.06" vaporized=""/>
    <tripinfo id="97" depart="97.00" departLane="btoc_0" departPos="5.10" departSpeed="0.00" departDelay="0.00" arrival="117.00" arrivalLane="ctot_0" arrivalPos="89.60" arrivalSpeed="11.46" duration="20.00" routeLength="194.90" waitingTime="0.00" waitingCount="0" stopTime="0.00" timeLoss="3.95" rerouteNo="0" devices="tripinfo_97" vType="DEFAULT_VEHTYPE" speedFactor="0.91" vaporized=""/>
    <tripinfo id="96" depart="98.00" departLane="totoc_0" departPos="5.10" departSpeed="0.00" departDelay="2.00" arrival="118.00" arrivalLane="ctol_0" arrivalPos="89.60" arrivalSpeed="12.80" duration="20.00" routeLength="183.13" waitingTime="0.00" waitingCount="0" stopTime="0.00" timeLoss="5.83" rerouteNo="0" devices="tripinfo_96" vType="DEFAULT_VEHTYPE" speedFactor="1.01" vaporized=""/>
    <tripinfo id="98" depart="100.00" departLane="btoc_0" departPos="5.10" departSpeed="0.00" departDelay="2.00" arrival="119.00" arrivalLane="ctor_0" arrivalPos="89.60" arrivalSpeed="14.70" duration="19.00" routeLength="183.13" waitingTime="0.00" waitingCount="0" stopTime="0.00" timeLoss="6.26" rerouteNo="0" devices="tripinfo_98" vType="DEFAULT_VEHTYPE" speedFactor="1.12" vaporized=""/>
    <tripinfo id="99" depart="101.00" departLane="totoc_0" departPos="5.10" departSpeed="0.00" departDelay="2.00" arrival="120.00" arrivalLane="ctol_0" arrivalPos="89.60" arrivalSpeed="15.19" duration="19.00" routeLength="183.13" waitingTime="0.00" waitingCount="0" stopTime="0.00" timeLoss="6.29" rerouteNo="0" devices="tripinfo_99" vType="DEFAULT_VEHTYPE" speedFactor="1.10" vaporized=""/>
    <tripinfo id="29" depart="29.00" departLane="ltoc_0" departPos="5.10" departSpeed="0.00" departDelay="0.00" arrival="125.00" arrivalLane="ctor_0" arrivalPos="89.60" arrivalSpeed="12.69" duration="96.00" routeLength="194.90" waitingTime="63.00" waitingCount="2" stopTime="0.00" timeLoss="80.92" rerouteNo="0" devices="tripinfo_29" vType="DEFAULT_VEHTYPE" speedFactor="0.93" vaporized=""/>
    <tripinfo id="103" depart="105.00" departLane="totoc_0" departPos="5.10" departSpeed="0.00" departDelay="2.00" arrival="126.00" arrivalLane="ctol_0" arrivalPos="89.60" arrivalSpeed="12.63" duration="21.00" routeLength="183.13" waitingTime="0.00" waitingCount="0" stopTime="0.00" timeLoss="5.77" rerouteNo="0" devices="tripinfo_103" vType="DEFAULT_VEHTYPE" speedFactor="0.95" vaporized=""/>
    <tripinfo id="106" depart="108.00" departLane="totoc_0" departPos="5.10" departSpeed="0.00" departDelay="2.00" arrival="128.00" arrivalLane="ctob_0" arrivalPos="89.60" arrivalSpeed="14.00" duration="20.00" routeLength="194.90" waitingTime="0.00" waitingCount="0" stopTime="0.00" timeLoss="5.18" rerouteNo="0" devices="tripinfo_106" vType="DEFAULT_VEHTYPE" speedFactor="1.01" vaporized=""/>
    <tripinfo id="107" depart="111.00" departLane="totoc_0" departPos="5.10" departSpeed="0.00" departDelay="4.00" arrival="130.00" arrivalLane="ctol_0" arrivalPos="89.60" arrivalSpeed="13.69" duration="19.00" routeLength="183.13" waitingTime="0.00" waitingCount="0" stopTime="0.00" timeLoss="5.74" rerouteNo="0" devices="tripinfo_107" vType="DEFAULT_VEHTYPE" speedFactor="1.03" vaporized=""/>
    <tripinfo id="67" depart="67.00" departLane="totoc_0" departPos="5.10" departSpeed="0.00" departDelay="0.00" arrival="133.00" arrivalLane="btoc_0" arrivalPos="89.60" arrivalSpeed="11.56" duration="66.00" routeLength="289.17" waitingTime="22.00" waitingCount="3" stopTime="0.00" timeLoss="41.81" rerouteNo="0" devices="tripinfo_67" vType="DEFAULT_VEHTYPE" speedFactor="0.91" vaporized=""/>
    <tripinfo id="113" depart="114.00" departLane="btoc_0" departPos="5.10" departSpeed="0.00" departDelay="1.00" arrival="134.00" arrivalLane="ctor_0" arrivalPos="89.60" arrivalSpeed="13.21" duration="20.00" routeLength="183.13" waitingTime="0.00" waitingCount="0" stopTime="0.00" timeLoss="5.92" rerouteNo="0" devices="tripinfo_113" vType="DEFAULT_VEHTYPE" speedFactor="1.01" vaporized=""/>
    <tripinfo id="64" depart="65.00" departLane="rtoc_0" departPos="5.10" departSpeed="0.00" departDelay="1.00" arrival="136.00" arrivalLane="ctol_0" arrivalPos="89.60" arrivalSpeed="12.22" duration="71.00" routeLength="194.90" waitingTime="39.00" waitingCount="2" stopTime="0.00" timeLoss="55.90" rerouteNo="0" devices="tripinfo_64" vType="DEFAULT_VEHTYPE" speedFactor="0.94" vaporized=""/>
    <tripinfo id="116" depart="118.00" departLane="btoc_0" departPos="5.10" departSpeed="0.00" departDelay="2.00" arrival="136.00" arrivalLane="ctot_0" arrivalPos="89.60" arrivalSpeed="15.97" duration="18.00" routeLength="194.90" waitingTime="0.00" waitingCount="0" stopTime="0.00" timeLoss="5.59" rerouteNo="0" devices="tripinfo_116" vType="DEFAULT_VEHTYPE" speedFactor="1.18" vaporized=""/>
    <tripinfo id="15" depart="16.00" departLane="ltoc_0" departPos="5.10" departSpeed="0.00" departDelay="1.00" arrival="140.00" arrivalLane="ctot_1" arrivalPos="89.60" arrivalSpeed="12.41" duration="124.00" routeLength="193.45" waitingTime="99.00" waitingCount="1" stopTime="0.00" timeLoss="108.04" rerouteNo="0" devices="tripinfo_15" vType="DEFAULT_VEHTYPE" speedFactor="0.93" vaporized=""/>
    <tripinfo id="61" depart="67.00" departLane="ctor_0" departPos="5.10" departSpeed="0.00" departDelay="6.00" arrival="140.00" arrivalLane="ctot_0" arrivalPos="89.60" arrivalSpeed="14.94" duration="73.00" routeLength="277.40" waitingTime="31.00" waitingCount="2" stopTime="0.00" timeLoss="53.92" rerouteNo="0" devices="tripinfo_61" vType="DEFAULT_VEHTYPE" speedFactor="1.12" vaporized=""/>
    <tripinfo id="42" depart="42.00" departLane="ltoc_0" departPos="5.10" departSpeed="0.00" departDelay="0.00" arrival="141.00" arrivalLane="ctor_0" arrivalPos="89.60" arrivalSpeed="14.06" duration="99.00" routeLength="194.90" waitingTime="62.00" waitingCount="3" stopTime="0.00" timeLoss="85.25" rerouteNo="0" devices="tripinfo_42" vType="DEFAULT_VEHTYPE" speedFactor="1.09" vaporized=""/>
    <tripinfo id="11" depart="11.00" departLane="totoc_0" departPos="5.10" departSpeed="0.00" departDelay="0.00" arrival="143.00" arrivalLane="ctot_1" arrivalPos="89.60" arrivalSpeed="13.41" duration="132.00" routeLength="178.78" waitingTime="103.00" waitingCount="3" stopTime="0.00" timeLoss="118.34" rerouteNo="0" devices="tripinfo_11" vType="DEFAULT_VEHTYPE" speedFactor="1.03" vaporized=""/>
    <tripinfo id="88" depart="88.00" departLane="rtoc_0" departPos="5.10" departSpeed="0.00" departDelay="0.00" arrival="144.00" arrivalLane="ctol_0" arrivalPos="89.60" arrivalSpeed="13.04" duration="56.00" routeLength="194.90" waitingTime="27.00" waitingCount="1" stopTime="0.00" timeLoss="41.15" rerouteNo="0" devices="tripinfo_88" vType="DEFAULT_VEHTYPE" speedFactor="1.01" vaporized=""/>
    <tripinfo id="128" depart="128.00" departLane="btoc_0" departPos="5.10" departSpeed="0.00" departDelay="0.00" arrival="146.00" arrivalLane="ctor_0" arrivalPos="89.60" arrivalSpeed="14.42" duration="18.00" routeLength="183.13" waitingTime="0.00" waitingCount="0" stopTime="0.00" timeLoss="5.55" rerouteNo="0" devices="tripinfo_128" vType="DEFAULT_VEHTYPE" speedFactor="1.12" vaporized=""/>
    <tripinfo id="131" depart="131.00" departLane="btoc_0" departPos="5.10" departSpeed="0.00" departDelay="0.00" arrival="151.00" arrivalLane="ctor_0" arrivalPos="89.60" arrivalSpeed="14.80" duration="20.00" routeLength="183.13" waitingTime="0.00" waitingCount="0" stopTime="0.00" timeLoss="6.29" rerouteNo="0" devices="tripinfo_131" vType="DEFAULT_VEHTYPE" speedFactor="1.07" vaporized=""/>
    <tripinfo id="36" depart="36.00" departLane="totoc_0" departPos="5.10" departSpeed="0.00" departDelay="0.00" arrival="153.00" arrivalLane="ctor_1" arrivalPos="89.60" arrivalSpeed="12.59" duration="117.00" routeLength="193.46" waitingTime="86.00" waitingCount="3" stopTime="0.00" timeLoss="101.86" rerouteNo="0" devices="tripinfo_36" vType="DEFAULT_VEHTYPE" speedFactor="0.97" vaporized=""/>
    <tripinfo id="110" depart="115.00" departLane="totoc_0" departPos="5.10" departSpeed="0.00" departDelay="5.00" arrival="154.00" arrivalLane="ctot_1" arrivalPos="89.60" arrivalSpeed="12.62" duration="39.00" routeLength="178.78" waitingTime="13.00" waitingCount="1" stopTime="0.00" timeLoss="24.20" rerouteNo="0" devices="tripinfo_110" vType="DEFAULT_VEHTYPE" speedFactor="0.93" vaporized=""/>
    <tripinfo id="92" depart="94.00" departLane="rtoc_0" departPos="5.10" departSpeed="0.00" departDelay="2.00" arrival="158.00" arrivalLane="rtoc_0" arrivalPos="89.60" arrivalSpeed="5.51" duration="64.00" routeLength="84.50" waitingTime="39.00" waitingCount="2" stopTime="0.00" timeLoss="56.51" rerouteNo="0" devices="tripinfo_92" vType="DEFAULT_VEHTYPE" speedFactor="0.83" vaporized=""/>
    <tripinfo id="138" depart="138.00" departLane="btoc_0" departPos="5.10" departSpeed="0.00" departDelay="0.00" arrival="159.00" arrivalLane="ctor_0" arrivalPos="89.60" arrivalSpeed="13.47" duration="21.00" routeLength="183.13" waitingTime="0.00" waitingCount="0" stopTime="0.00" timeLoss="6.30" rerouteNo="0" devices="tripinfo_138" vType="DEFAULT_VEHTYPE" speedFactor="1.00" vaporized=""/>
    <tripinfo id="139" depart="141.00" departLane="btoc_0" departPos="5.10" departSpeed="0.00" departDelay="2.00" arrival="161.00" arrivalLane="ctot_0" arrivalPos="89.60" arrivalSpeed="13.16" duration="20.00" routeLength="194.90" waitingTime="0.00" waitingCount="0" stopTime="0.00" timeLoss="4.72" rerouteNo="0" devices="tripinfo_139" vType="DEFAULT_VEHTYPE" speedFactor="0.95" vaporized=""/>